{"idea": 1, "black": 2, "friday": 2, "get": 2, "somewhat": 1, "mixed": 1, "reception": 1, "uk": 3, "imported": 1, "year": 6, "back": 1, "u": 3, "impressive": 1, "piece": 1, "fancy": 1, "pr": 1, "footwork": 1, "there": 1, "real": 2, "reason": 1, "event": 2, "exist": 1, "outside": 1, "america": 1, "since": 1, "preceding": 1, "day": 2, "public": 1, "holiday": 1, "elsewherestill": 1, "heavy": 1, "discounting": 1, "persuade": 1, "many": 1, "shopper": 1, "spend": 3, "british": 1, "retail": 2, "executive": 3, "keeping": 1, "close": 1, "eye": 1, "today": 4, "sale": 5, "performanceat": 1, "department": 1, "store": 2, "chain": 1, "house": 9, "fraser": 8, "cio": 1, "julian": 1, "burnett": 8, "colleague": 1, "watching": 1, "data": 15, "come": 4, "told": 1, "diginomica": 1, "recent": 1, "work": 10, "analytics": 4, "company": 3, "microstrategy": 3, "getting": 1, "better": 1, "shape": 1, "still": 3, "much": 2, "dowere": 1, "right": 2, "thick": 1, "starting": 1, "make": 4, "trading": 2, "decision": 3, "every": 1, "minute": 1, "based": 3, "whats": 4, "occurring": 1, "weve": 1, "got": 1, "informs": 1, "realtime": 2, "context": 1, "past": 4, "would": 3, "committed": 1, "batchbased": 1, "system": 1, "stuck": 1, "database": 1, "needing": 1, "organized": 1, "create": 1, "structured": 2, "output": 1, "read": 1, "really": 6, "point": 3, "thatturnaround": 1, "planinformed": 1, "decisionmaking": 1, "matter": 2, "great": 1, "deal": 1, "middle": 1, "big": 5, "turnaround": 1, "effort": 2, "performance": 3, "lagged": 1, "behind": 1, "rival": 1, "john": 1, "lewis": 1, "debenhams": 1, "september": 1, "received": 1, "first": 2, "cash": 1, "injection": 1, "amounting": 1, "million": 2, "chinese": 1, "owner": 1, "sanpower": 1, "bought": 1, "long": 3, "period": 3, "underinvestment": 1, "six": 1, "month": 1, "july": 1, "reported": 1, "likeforlike": 1, "percent": 3, "total": 1, "dropped": 1, "part": 3, "due": 2, "disruption": 1, "caused": 1, "website": 1, "overhaul": 1, "spring": 1, "online": 1, "say": 6, "burnettwere": 1, "history": 3, "taking": 3, "hard": 3, "look": 2, "aspect": 2, "business": 8, "term": 2, "positioning": 1, "market": 3, "customer": 4, "engagement": 1, "operational": 1, "effectiveness": 1, "portfolio": 1, "reconsidered": 1, "relative": 1, "im": 1, "sure": 1, "pretty": 1, "obvious": 1, "dramatically": 1, "shifting": 3, "whole": 1, "bunch": 1, "prevailing": 1, "factor": 1, "least": 1, "digitization": 1, "relationship": 1, "supplier": 1, "also": 3, "economic": 1, "uncertainty": 1, "challenge": 2, "face": 1, "putting": 1, "melting": 1, "pot": 1, "reasonably": 1, "practical": 1, "strategic": 2, "planat": 1, "heart": 1, "plan": 2, "information": 4, "he": 2, "looking": 4, "capability": 2, "versus": 1, "belief": 1, "need": 2, "future": 2, "hence": 1, "microstrategywere": 1, "waking": 1, "enormity": 1, "opportunity": 1, "tool": 5, "use": 4, "provide": 1, "next": 1, "couple": 1, "usputting": 1, "actionits": 1, "one": 1, "thing": 8, "course": 2, "announce": 1, "investment": 2, "intelligence": 2, "suite": 1, "quite": 2, "another": 1, "deploy": 1, "way": 5, "difference": 1, "staff": 1, "daytoday": 1, "basis": 1, "longer": 1, "good": 1, "enough": 1, "slice": 1, "dice": 1, "historical": 1, "instead": 1, "emphasis": 1, "saying": 1, "condition": 1, "nowit": 1, "may": 2, "sound": 2, "glib": 1, "mindset": 2, "available": 1, "away": 1, "worrying": 1, "happened": 1, "last": 1, "pricing": 1, "product": 1, "promoting": 1, "certain": 1, "particular": 1, "group": 3, "towards": 1, "happening": 1, "like": 1, "happen": 1, "shouldnt": 2, "allow": 1, "define": 1, "viewso": 1, "team": 2, "help": 1, "twopronged": 2, "approach": 2, "theyve": 1, "clear": 1, "understanding": 1, "leading": 2, "indicator": 3, "senior": 2, "worked": 3, "establish": 1, "single": 1, "version": 1, "truthits": 1, "secret": 1, "overall": 1, "going": 1, "wrong": 1, "time": 3, "transformation": 1, "journey": 1, "clarify": 1, "describe": 1, "winning": 1, "formula": 1, "absolutely": 2, "well": 4, "le": 2, "dont": 1, "task": 1, "identify": 2, "concentrate": 2, "strategy": 1, "around": 2, "want": 2, "sustainably": 1, "profitable": 1, "futurethese": 1, "delivered": 1, "small": 1, "shrinkwrapped": 1, "format": 2, "dashboard": 1, "tampered": 1, "questioned": 1, "gone": 1, "cleansing": 1, "guaranteeing": 1, "providence": 1, "draconian": 1, "second": 1, "stage": 2, "trying": 2, "deliver": 1, "freedom": 1, "form": 1, "visualization": 1, "reach": 1, "wider": 1, "employee": 1, "empowering": 1, "informationretail": 1, "insatiable": 1, "appetite": 1, "deter": 1, "people": 1, "asking": 1, "excessive": 1, "report": 2, "giving": 1, "visual": 3, "equivalent": 3, "tabular": 2, "theyre": 1, "used": 1, "receiving": 1, "allows": 1, "enquiry": 1, "precise": 1, "selection": 1, "likely": 2, "worth": 1, "youre": 1, "actually": 1, "acting": 1, "itat": 1, "probably": 2, "codified": 1, "regular": 1, "popular": 1, "formatsa": 1, "datacentric": 2, "vision": 2, "futuretheres": 1, "go": 1, "new": 2, "aiming": 1, "move": 1, "onpremise": 1, "warehouse": 1, "unstructured": 1, "pool": 1, "cloud": 1, "doesnt": 1, "worry": 1, "buying": 1, "hardware": 1, "expand": 1, "toolset": 1, "using": 1, "half": 1, "widespread": 1, "training": 1, "required": 1, "production": 1, "experimenting": 1, "artificial": 1, "knotty": 1, "dataintensive": 1, "problem": 1, "markdown": 1, "optimization": 1, "yearbut": 1, "biggest": 1, "uphill": 1, "lie": 1, "changing": 1, "heritage": 1, "acknowledgesits": 1, "accumulated": 1, "modus": 1, "operandi": 1, "repeating": 1, "sometimes": 1, "often": 1, "impossible": 1, "determine": 1, "unless": 1, "led": 1, "instinct": 1, "prediction": 1, "pivot": 1, "believe": 1, "best": 1, "forwardsimage": 1, "credit": 1, "fraserread": 1, "planning": 1, "analysisdigital": 1, "enterprise": 1, "worldretail": 1, "ecommerce": 1, "omnichanneluse": 1, "case": 1}